15
	Energy:      10.5637353
C         -5.48821        0.02982       -0.00852
C         -4.15445       -0.12323       -0.04208
C         -3.48273       -1.46491        0.04697
F         -3.88123       -2.11120        1.17935
C         -1.96681       -1.36452        0.07853
H         -3.78257       -2.08264       -0.80658
C         -6.18988        1.34568       -0.08727
H         -6.12260       -0.84989        0.08936
H         -3.51606        0.75189       -0.13305
H         -5.49066        2.18549       -0.14705
H         -6.81679        1.48581        0.79859
H         -6.83374        1.37210       -0.97169
H         -1.62796       -0.78043        0.94086
H         -1.57677       -0.90140       -0.83351
H         -1.52787       -2.36296        0.17627
